2
Properties=species:S:1:pos:R:3:momenta:R:3:forces:R:3 energy=-0.9973712746764004 pbc="F F F"
H        0.00000000       0.00000000       0.00000000       0.00000000       0.00000000       0.00000000       0.00000000       0.00000000      -0.10779964
H        0.00000000       0.00000000       0.95000000       0.00000000       0.00000000       0.00000000       0.00000000       0.00000000       0.10779964
2
Properties=species:S:1:pos:R:3:momenta:R:3:forces:R:3 energy=-0.997481275273776 pbc="F F F"
H        0.00000000       0.00000000      -0.00051593       0.00000000       0.00000000      -0.01047153       0.00000000       0.00000000      -0.10541125
H        0.00000000       0.00000000       0.95051593       0.00000000       0.00000000       0.01047153       0.00000000       0.00000000       0.10541125
2
Properties=species:S:1:pos:R:3:momenta:R:3:forces:R:3 energy=-0.997792045372555 pbc="F F F"
H        0.00000000       0.00000000      -0.00204085       0.00000000       0.00000000      -0.02048109       0.00000000       0.00000000      -0.09839366
H        0.00000000       0.00000000       0.95204085       0.00000000       0.00000000       0.02048109       0.00000000       0.00000000       0.09839366
2
Properties=species:S:1:pos:R:3:momenta:R:3:forces:R:3 energy=-0.9982497238274937 pbc="F F F"
H        0.00000000       0.00000000      -0.00450758       0.00000000       0.00000000      -0.02959493       0.00000000       0.00000000      -0.08717316
H        0.00000000       0.00000000       0.95450758       0.00000000       0.00000000       0.02959493       0.00000000       0.00000000       0.08717316
2
Properties=species:S:1:pos:R:3:momenta:R:3:forces:R:3 energy=-0.9987763695261314 pbc="F F F"
H        0.00000000       0.00000000      -0.00780874       0.00000000       0.00000000      -0.03743252       0.00000000       0.00000000      -0.07240812
H        0.00000000       0.00000000       0.95780874       0.00000000       0.00000000       0.03743252       0.00000000       0.00000000       0.07240812
2
Properties=species:S:1:pos:R:3:momenta:R:3:forces:R:3 energy=-0.9992846815732355 pbc="F F F"
H        0.00000000       0.00000000      -0.01180298       0.00000000       0.00000000      -0.04368612       0.00000000       0.00000000      -0.05492151
H        0.00000000       0.00000000       0.96180298       0.00000000       0.00000000       0.04368612       0.00000000       0.00000000       0.05492151
2
Properties=species:S:1:pos:R:3:momenta:R:3:forces:R:3 energy=-0.999693554416115 pbc="F F F"
H        0.00000000       0.00000000      -0.01632294       0.00000000       0.00000000      -0.04813313       0.00000000       0.00000000      -0.03562407
H        0.00000000       0.00000000       0.96632294       0.00000000       0.00000000       0.04813313       0.00000000       0.00000000       0.03562407
2
Properties=species:S:1:pos:R:3:momenta:R:3:forces:R:3 energy=-0.999941302269605 pbc="F F F"
H        0.00000000       0.00000000      -0.02118388       0.00000000       0.00000000      -0.05064107       0.00000000       0.00000000      -0.01544028
H        0.00000000       0.00000000       0.97118388       0.00000000       0.00000000       0.05064107       0.00000000       0.00000000       0.01544028
2
Properties=species:S:1:pos:R:3:momenta:R:3:forces:R:3 energy=-0.9999943242399703 pbc="F F F"
H        0.00000000       0.00000000      -0.02619261       0.00000000       0.00000000      -0.05116594       0.00000000       0.00000000       0.00475342
H        0.00000000       0.00000000       0.97619261       0.00000000       0.00000000       0.05116594       0.00000000       0.00000000      -0.00475342
2
Properties=species:S:1:pos:R:3:momenta:R:3:forces:R:3 energy=-0.9998502748677495 pbc="F F F"
H        0.00000000       0.00000000      -0.03115585       0.00000000       0.00000000      -0.04974527       0.00000000       0.00000000       0.02417299
H        0.00000000       0.00000000       0.98115585       0.00000000       0.00000000       0.04974527       0.00000000       0.00000000      -0.02417299
2
Properties=species:S:1:pos:R:3:momenta:R:3:forces:R:3 energy=-0.9995360268520296 pbc="F F F"
H        0.00000000       0.00000000      -0.03588770       0.00000000       0.00000000      -0.04648781       0.00000000       0.00000000       0.04215213
H        0.00000000       0.00000000       0.98588770       0.00000000       0.00000000       0.04648781       0.00000000       0.00000000      -0.04215213
2
Properties=species:S:1:pos:R:3:momenta:R:3:forces:R:3 energy=-0.9991015735298625 pbc="F F F"
H        0.00000000       0.00000000      -0.04021608       0.00000000       0.00000000      -0.04156159       0.00000000       0.00000000       0.05815067
H        0.00000000       0.00000000       0.99021608       0.00000000       0.00000000       0.04156159       0.00000000       0.00000000      -0.05815067
2
Properties=species:S:1:pos:R:3:momenta:R:3:forces:R:3 energy=-0.9986114208068866 pbc="F F F"
H        0.00000000       0.00000000      -0.04398784       0.00000000       0.00000000      -0.03518171       0.00000000       0.00000000       0.07175013
H        0.00000000       0.00000000       0.99398784       0.00000000       0.00000000       0.03518171       0.00000000       0.00000000      -0.07175013
2
Properties=species:S:1:pos:R:3:momenta:R:3:forces:R:3 energy=-0.9981350226448785 pbc="F F F"
H        0.00000000       0.00000000      -0.04707281       0.00000000       0.00000000      -0.02759903       0.00000000       0.00000000       0.08264081
H        0.00000000       0.00000000       0.99707281       0.00000000       0.00000000       0.02759903       0.00000000       0.00000000      -0.08264081
2
Properties=species:S:1:pos:R:3:momenta:R:3:forces:R:3 energy=-0.9977375638974397 pbc="F F F"
H        0.00000000       0.00000000      -0.04936675       0.00000000       0.00000000      -0.01909032       0.00000000       0.00000000       0.09060527
H        0.00000000       0.00000000       0.99936675       0.00000000       0.00000000       0.01909032       0.00000000       0.00000000      -0.09060527
2
Properties=species:S:1:pos:R:3:momenta:R:3:forces:R:3 energy=-0.9974720410264541 pbc="F F F"
H        0.00000000       0.00000000      -0.05079341       0.00000000       0.00000000      -0.00994996       0.00000000       0.00000000       0.09550171
H        0.00000000       0.00000000       1.00079341       0.00000000       0.00000000       0.00994996       0.00000000       0.00000000      -0.09550171
2
Properties=species:S:1:pos:R:3:momenta:R:3:forces:R:3 energy=-0.997373249829771 pbc="F F F"
H        0.00000000       0.00000000      -0.05130594       0.00000000       0.00000000      -0.00048324       0.00000000       0.00000000       0.09725016
H        0.00000000       0.00000000       1.00130594       0.00000000       0.00000000       0.00048324       0.00000000       0.00000000      -0.09725016
2
Properties=species:S:1:pos:R:3:momenta:R:3:forces:R:3 energy=-0.9974540217405214 pbc="F F F"
H        0.00000000       0.00000000      -0.05088759       0.00000000       0.00000000       0.00899927       0.00000000       0.00000000       0.09582342
H        0.00000000       0.00000000       1.00088759       0.00000000       0.00000000      -0.00899927       0.00000000       0.00000000      -0.09582342
2
Properties=species:S:1:pos:R:3:momenta:R:3:forces:R:3 energy=-0.9977038702656097 pbc="F F F"
H        0.00000000       0.00000000      -0.04955203       0.00000000       0.00000000       0.01818678       0.00000000       0.00000000       0.09124364
H        0.00000000       0.00000000       0.99955203       0.00000000       0.00000000      -0.01818678       0.00000000       0.00000000      -0.09124364
2
Properties=species:S:1:pos:R:3:momenta:R:3:forces:R:3 energy=-0.9980900958332249 pbc="F F F"
H        0.00000000       0.00000000      -0.04734308       0.00000000       0.00000000       0.02677323       0.00000000       0.00000000       0.08358509
H        0.00000000       0.00000000       0.99734308       0.00000000       0.00000000      -0.02677323       0.00000000       0.00000000      -0.08358509
2
Properties=species:S:1:pos:R:3:momenta:R:3:forces:R:3 energy=-0.9985613100398812 pbc="F F F"
H        0.00000000       0.00000000      -0.04433407       0.00000000       0.00000000       0.03446282       0.00000000       0.00000000       0.07298275
H        0.00000000       0.00000000       0.99433407       0.00000000       0.00000000      -0.03446282       0.00000000       0.00000000      -0.07298275
2
Properties=species:S:1:pos:R:3:momenta:R:3:forces:R:3 energy=-0.9990532316927108 pbc="F F F"
H        0.00000000       0.00000000      -0.04062646       0.00000000       0.00000000       0.04097666       0.00000000       0.00000000       0.05964566
H        0.00000000       0.00000000       0.99062646       0.00000000       0.00000000      -0.04097666       0.00000000       0.00000000      -0.05964566
2
Properties=species:S:1:pos:R:3:momenta:R:3:forces:R:3 energy=-0.9994964352126763 pbc="F F F"
H        0.00000000       0.00000000      -0.03634793       0.00000000       0.00000000       0.04606084       0.00000000       0.00000000       0.04387337
H        0.00000000       0.00000000       0.98634793       0.00000000       0.00000000      -0.04606084       0.00000000       0.00000000      -0.04387337
2
Properties=species:S:1:pos:R:3:momenta:R:3:forces:R:3 energy=-0.9998254733529934 pbc="F F F"
H        0.00000000       0.00000000      -0.03164945       0.00000000       0.00000000       0.04949614       0.00000000       0.00000000       0.02607265
H        0.00000000       0.00000000       0.98164945       0.00000000       0.00000000      -0.04949614       0.00000000       0.00000000      -0.02607265
2
Properties=species:S:1:pos:R:3:momenta:R:3:forces:R:3 energy=-0.9999884603409129 pbc="F F F"
H        0.00000000       0.00000000      -0.02670140       0.00000000       0.00000000       0.05110920       0.00000000       0.00000000       0.00677094
H        0.00000000       0.00000000       0.97670140       0.00000000       0.00000000      -0.05110920       0.00000000       0.00000000      -0.00677094
2
Properties=species:S:1:pos:R:3:momenta:R:3:forces:R:3 energy=-0.9999558451088103 pbc="F F F"
H        0.00000000       0.00000000      -0.02168853       0.00000000       0.00000000       0.05078470       0.00000000       0.00000000      -0.01337814
H        0.00000000       0.00000000       0.97168853       0.00000000       0.00000000      -0.05078470       0.00000000       0.00000000       0.01337814
2
Properties=species:S:1:pos:R:3:momenta:R:3:forces:R:3 energy=-0.999726836968325 pbc="F F F"
H        0.00000000       0.00000000      -0.01680373       0.00000000       0.00000000       0.04847736       0.00000000       0.00000000      -0.03360162
H        0.00000000       0.00000000       0.96680373       0.00000000       0.00000000      -0.04847736       0.00000000       0.00000000       0.03360162
2
Properties=species:S:1:pos:R:3:momenta:R:3:forces:R:3 energy=-0.9993319174740983 pbc="F F F"
H        0.00000000       0.00000000      -0.01224055       0.00000000       0.00000000       0.04422254       0.00000000       0.00000000      -0.05303075
H        0.00000000       0.00000000       0.96224055       0.00000000       0.00000000      -0.04422254       0.00000000       0.00000000       0.05303075
2
Properties=species:S:1:pos:R:3:momenta:R:3:forces:R:3 energy=-0.9988302291888702 pbc="F F F"
H        0.00000000       0.00000000      -0.00818498       0.00000000       0.00000000       0.03814356       0.00000000       0.00000000      -0.07074337
H        0.00000000       0.00000000       0.95818498       0.00000000       0.00000000      -0.03814356       0.00000000       0.00000000       0.07074337
2
Properties=species:S:1:pos:R:3:momenta:R:3:forces:R:3 energy=-0.9983014476325066 pbc="F F F"
H        0.00000000       0.00000000      -0.00480657       0.00000000       0.00000000       0.03045399       0.00000000       0.00000000      -0.08582410
H        0.00000000       0.00000000       0.95480657       0.00000000       0.00000000      -0.03045399       0.00000000       0.00000000       0.08582410
2
Properties=species:S:1:pos:R:3:momenta:R:3:forces:R:3 energy=-0.9978329381698532 pbc="F F F"
H        0.00000000       0.00000000      -0.00224966       0.00000000       0.00000000       0.02145337       0.00000000       0.00000000      -0.09743755
H        0.00000000       0.00000000       0.95224966       0.00000000       0.00000000      -0.02145337       0.00000000       0.00000000       0.09743755
2
Properties=species:S:1:pos:R:3:momenta:R:3:forces:R:3 energy=-0.9975043037981127 pbc="F F F"
H        0.00000000       0.00000000      -0.00062542       0.00000000       0.00000000       0.01151562       0.00000000       0.00000000      -0.10490528
H        0.00000000       0.00000000       0.95062542       0.00000000       0.00000000      -0.01151562       0.00000000       0.00000000       0.10490528
2
Properties=species:S:1:pos:R:3:momenta:R:3:forces:R:3 energy=-0.9973724235644195 pbc="F F F"
H        0.00000000       0.00000000      -0.00000533       0.00000000       0.00000000       0.00107015       0.00000000       0.00000000      -0.10777494
H        0.00000000       0.00000000       0.95000533       0.00000000       0.00000000      -0.00107015       0.00000000       0.00000000       0.10777494
2
Properties=species:S:1:pos:R:3:momenta:R:3:forces:R:3 energy=-0.9974603432272837 pbc="F F F"
H        0.00000000       0.00000000      -0.00041685       0.00000000       0.00000000      -0.00942266       0.00000000       0.00000000      -0.10586933
H        0.00000000       0.00000000       0.95041685       0.00000000       0.00000000       0.00942266       0.00000000       0.00000000       0.10586933
2
Properties=species:S:1:pos:R:3:momenta:R:3:forces:R:3 energy=-0.9977526854632058 pbc="F F F"
H        0.00000000       0.00000000      -0.00184176       0.00000000       0.00000000      -0.01949955       0.00000000       0.00000000      -0.09930633
H        0.00000000       0.00000000       0.95184176       0.00000000       0.00000000       0.01949955       0.00000000       0.00000000       0.09930633
2
Properties=species:S:1:pos:R:3:momenta:R:3:forces:R:3 energy=-0.9981987178600645 pbc="F F F"
H        0.00000000       0.00000000      -0.00421721       0.00000000       0.00000000      -0.02872266       0.00000000       0.00000000      -0.08848559
H        0.00000000       0.00000000       0.95421721       0.00000000       0.00000000       0.02872266       0.00000000       0.00000000       0.08848559
2
Properties=species:S:1:pos:R:3:momenta:R:3:forces:R:3 energy=-0.998722315635404 pbc="F F F"
H        0.00000000       0.00000000      -0.00743965       0.00000000       0.00000000      -0.03670509       0.00000000       0.00000000      -0.07404479
H        0.00000000       0.00000000       0.95743965       0.00000000       0.00000000       0.03670509       0.00000000       0.00000000       0.07404479
2
Properties=species:S:1:pos:R:3:momenta:R:3:forces:R:3 energy=-0.9992364052328094 pbc="F F F"
H        0.00000000       0.00000000      -0.01137084       0.00000000       0.00000000      -0.04313102       0.00000000       0.00000000      -0.05679363
H        0.00000000       0.00000000       0.96137084       0.00000000       0.00000000       0.04313102       0.00000000       0.00000000       0.05679363
2
Properties=species:S:1:pos:R:3:momenta:R:3:forces:R:3 energy=-0.9996585891029409 pbc="F F F"
H        0.00000000       0.00000000      -0.01584566       0.00000000       0.00000000      -0.04776886       0.00000000       0.00000000      -0.03763744
H        0.00000000       0.00000000       0.96584566       0.00000000       0.00000000       0.04776886       0.00000000       0.00000000       0.03763744
2
Properties=species:S:1:pos:R:3:momenta:R:3:forces:R:3 energy=-0.9999247282015707 pbc="F F F"
H        0.00000000       0.00000000      -0.02068074       0.00000000       0.00000000      -0.05047697       0.00000000       0.00000000      -0.01750241
H        0.00000000       0.00000000       0.97068074       0.00000000       0.00000000       0.05047697       0.00000000       0.00000000       0.01750241
2
Properties=species:S:1:pos:R:3:momenta:R:3:forces:R:3 energy=-0.9999981346387138 pbc="F F F"
H        0.00000000       0.00000000      -0.02568336       0.00000000       0.00000000      -0.05120260       0.00000000       0.00000000       0.00272783
H        0.00000000       0.00000000       0.97568336       0.00000000       0.00000000       0.05120260       0.00000000       0.00000000      -0.00272783
2
Properties=species:S:1:pos:R:3:momenta:R:3:forces:R:3 energy=-0.9998733048108224 pbc="F F F"
H        0.00000000       0.00000000      -0.03065986       0.00000000       0.00000000      -0.04997544       0.00000000       0.00000000       0.02225840
H        0.00000000       0.00000000       0.98065986       0.00000000       0.00000000       0.04997544       0.00000000       0.00000000      -0.02225840
2
Properties=species:S:1:pos:R:3:momenta:R:3:forces:R:3 energy=-0.9995743689317379 pbc="F F F"
H        0.00000000       0.00000000      -0.03542331       0.00000000       0.00000000      -0.04689756       0.00000000       0.00000000       0.04041039
H        0.00000000       0.00000000       0.98542331       0.00000000       0.00000000       0.04689756       0.00000000       0.00000000      -0.04041039
2
Properties=species:S:1:pos:R:3:momenta:R:3:forces:R:3 energy=-0.9991493379616572 pbc="F F F"
H        0.00000000       0.00000000      -0.03979995       0.00000000       0.00000000      -0.04213152       0.00000000       0.00000000       0.05663090
H        0.00000000       0.00000000       0.98979995       0.00000000       0.00000000       0.04213152       0.00000000       0.00000000      -0.05663090
2
Properties=species:S:1:pos:R:3:momenta:R:3:forces:R:3 energy=-0.9986616769107582 pbc="F F F"
H        0.00000000       0.00000000      -0.04363452       0.00000000       0.00000000      -0.03588820       0.00000000       0.00000000       0.07048955
H        0.00000000       0.00000000       0.99363452       0.00000000       0.00000000       0.03588820       0.00000000       0.00000000      -0.07048955
2
Properties=species:S:1:pos:R:3:momenta:R:3:forces:R:3 energy=-0.998180772457173 pbc="F F F"
H        0.00000000       0.00000000      -0.04679437       0.00000000       0.00000000      -0.02841529       0.00000000       0.00000000       0.08166635
H        0.00000000       0.00000000       0.99679437       0.00000000       0.00000000       0.02841529       0.00000000       0.00000000      -0.08166635
2
Properties=species:S:1:pos:R:3:momenta:R:3:forces:R:3 energy=-0.9977726311031441 pbc="F F F"
H        0.00000000       0.00000000      -0.04917251       0.00000000       0.00000000      -0.01998734       0.00000000       0.00000000       0.08993528
H        0.00000000       0.00000000       0.99917251       0.00000000       0.00000000       0.01998734       0.00000000       0.00000000      -0.08993528
2
Properties=species:S:1:pos:R:3:momenta:R:3:forces:R:3 energy=-0.9974917952119838 pbc="F F F"
H        0.00000000       0.00000000      -0.05068980       0.00000000       0.00000000      -0.01089728       0.00000000       0.00000000       0.09514755
H        0.00000000       0.00000000       1.00068980       0.00000000       0.00000000       0.01089728       0.00000000       0.00000000      -0.09514755
2
Properties=species:S:1:pos:R:3:momenta:R:3:forces:R:3 energy=-0.9973751179427787 pbc="F F F"
H        0.00000000       0.00000000      -0.05129633       0.00000000       0.00000000      -0.00144957       0.00000000       0.00000000       0.09721744
H        0.00000000       0.00000000       1.00129633       0.00000000       0.00000000       0.00144957       0.00000000       0.00000000      -0.09721744
2
Properties=species:S:1:pos:R:3:momenta:R:3:forces:R:3 energy=-0.9974377617000886 pbc="F F F"
H        0.00000000       0.00000000      -0.05097231       0.00000000       0.00000000       0.00804555       0.00000000       0.00000000       0.09611264
H        0.00000000       0.00000000       1.00097231       0.00000000       0.00000000      -0.00804555       0.00000000       0.00000000      -0.09611264
2
Properties=species:S:1:pos:R:3:momenta:R:3:forces:R:3 energy=-0.9976715963324184 pbc="F F F"
H        0.00000000       0.00000000      -0.04972830       0.00000000       0.00000000       0.01727706       0.00000000       0.00000000       0.09185026
H        0.00000000       0.00000000       0.99972830       0.00000000       0.00000000      -0.01727706       0.00000000       0.00000000      -0.09185026
2
Properties=species:S:1:pos:R:3:momenta:R:3:forces:R:3 energy=-0.9980460548829337 pbc="F F F"
H        0.00000000       0.00000000      -0.04760510       0.00000000       0.00000000       0.02593818       0.00000000       0.00000000       0.08449901
H        0.00000000       0.00000000       0.99760510       0.00000000       0.00000000      -0.02593818       0.00000000       0.00000000      -0.08449901
2
Properties=species:S:1:pos:R:3:momenta:R:3:forces:R:3 energy=-0.9985114169194419 pbc="F F F"
H        0.00000000       0.00000000      -0.04467308       0.00000000       0.00000000       0.03373181       0.00000000       0.00000000       0.07418715
H        0.00000000       0.00000000       0.99467308       0.00000000       0.00000000      -0.03373181       0.00000000       0.00000000      -0.07418715
2
Properties=species:S:1:pos:R:3:momenta:R:3:forces:R:3 energy=-0.999004385136476 pbc="F F F"
H        0.00000000       0.00000000      -0.04103095       0.00000000       0.00000000       0.04037700       0.00000000       0.00000000       0.06111550
H        0.00000000       0.00000000       0.99103095       0.00000000       0.00000000      -0.04037700       0.00000000       0.00000000      -0.06111550
2
Properties=species:S:1:pos:R:3:momenta:R:3:forces:R:3 energy=-0.9994556570000093 pbc="F F F"
H        0.00000000       0.00000000      -0.03680382       0.00000000       0.00000000       0.04561687       0.00000000       0.00000000       0.04557363
H        0.00000000       0.00000000       0.98680382       0.00000000       0.00000000      -0.04561687       0.00000000       0.00000000      -0.04557363
2
Properties=species:S:1:pos:R:3:momenta:R:3:forces:R:3 energy=-0.9997989436381471 pbc="F F F"
H        0.00000000       0.00000000      -0.03214046       0.00000000       0.00000000       0.04922820       0.00000000       0.00000000       0.02795676
H        0.00000000       0.00000000       0.98214046       0.00000000       0.00000000      -0.04922820       0.00000000       0.00000000      -0.02795676
2
Properties=species:S:1:pos:R:3:momenta:R:3:forces:R:3 energy=-0.9999805584675335 pbc="F F F"
H        0.00000000       0.00000000      -0.02720950       0.00000000       0.00000000       0.05103245       0.00000000       0.00000000       0.00877963
H        0.00000000       0.00000000       0.97720950       0.00000000       0.00000000      -0.05103245       0.00000000       0.00000000      -0.00877963
2
Properties=species:S:1:pos:R:3:momenta:R:3:forces:R:3 energy=-0.9999683395585508 pbc="F F F"
H        0.00000000       0.00000000      -0.02219450       0.00000000       0.00000000       0.05090784       0.00000000       0.00000000      -0.01131684
H        0.00000000       0.00000000       0.97219450       0.00000000       0.00000000      -0.05090784       0.00000000       0.00000000       0.01131684
2
Properties=species:S:1:pos:R:3:momenta:R:3:forces:R:3 energy=-0.9997583870079197 pbc="F F F"
H        0.00000000       0.00000000      -0.01728783       0.00000000       0.00000000       0.04880147       0.00000000       0.00000000      -0.03157104
H        0.00000000       0.00000000       0.96728783       0.00000000       0.00000000      -0.04880147       0.00000000       0.00000000       0.03157104
2
Properties=species:S:1:pos:R:3:momenta:R:3:forces:R:3 energy=-0.9993780365375494 pbc="F F F"
H        0.00000000       0.00000000      -0.01268336       0.00000000       0.00000000       0.04474011       0.00000000       0.00000000      -0.05112232
H        0.00000000       0.00000000       0.96268336       0.00000000       0.00000000      -0.04474011       0.00000000       0.00000000       0.05112232
2
Properties=species:S:1:pos:R:3:momenta:R:3:forces:R:3 energy=-0.9988838031696401 pbc="F F F"
H        0.00000000       0.00000000      -0.00856822       0.00000000       0.00000000       0.03883796       0.00000000       0.00000000      -0.06905146
H        0.00000000       0.00000000       0.95856822       0.00000000       0.00000000      -0.03883796       0.00000000       0.00000000       0.06905146
2
Properties=species:S:1:pos:R:3:momenta:R:3:forces:R:3 energy=-0.9983537983891347 pbc="F F F"
H        0.00000000       0.00000000      -0.00511404       0.00000000       0.00000000       0.03129950       0.00000000       0.00000000      -0.08443922
H        0.00000000       0.00000000       0.95511404       0.00000000       0.00000000      -0.03129950       0.00000000       0.00000000       0.08443922
2
Properties=species:S:1:pos:R:3:momenta:R:3:forces:R:3 energy=-0.997875290280749 pbc="F F F"
H        0.00000000       0.00000000      -0.00246811       0.00000000       0.00000000       0.02241596       0.00000000       0.00000000      -0.09643857
H        0.00000000       0.00000000       0.95246811       0.00000000       0.00000000      -0.02241596       0.00000000       0.00000000       0.09643857
2
Properties=species:S:1:pos:R:3:momenta:R:3:forces:R:3 energy=-0.9975293867754943 pbc="F F F"
H        0.00000000       0.00000000      -0.00074529       0.00000000       0.00000000       0.01255445       0.00000000       0.00000000      -0.10435175
H        0.00000000       0.00000000       0.95074529       0.00000000       0.00000000      -0.01255445       0.00000000       0.00000000       0.10435175
2
Properties=species:S:1:pos:R:3:momenta:R:3:forces:R:3 energy=-0.9973758681213247 pbc="F F F"
H        0.00000000       0.00000000      -0.00002132       0.00000000       0.00000000       0.00213981       0.00000000       0.00000000      -0.10770083
H        0.00000000       0.00000000       0.95002132       0.00000000       0.00000000      -0.00213981       0.00000000       0.00000000       0.10770083
2
Properties=species:S:1:pos:R:3:momenta:R:3:forces:R:3 energy=-0.9974415458929078 pbc="F F F"
H        0.00000000       0.00000000      -0.00032825       0.00000000       0.00000000      -0.00836949       0.00000000       0.00000000      -0.10627924
H        0.00000000       0.00000000       0.95032825       0.00000000       0.00000000       0.00836949       0.00000000       0.00000000       0.10627924
2
Properties=species:S:1:pos:R:3:momenta:R:3:forces:R:3 energy=-0.9977149293901717 pbc="F F F"
H        0.00000000       0.00000000      -0.00165248       0.00000000       0.00000000      -0.01850917       0.00000000       0.00000000      -0.10017497
H        0.00000000       0.00000000       0.95165248       0.00000000       0.00000000       0.01850917       0.00000000       0.00000000       0.10017497
2
Properties=species:S:1:pos:R:3:momenta:R:3:forces:R:3 energy=-0.9981485196108315 pbc="F F F"
H        0.00000000       0.00000000      -0.00393559       0.00000000       0.00000000      -0.02783757       0.00000000       0.00000000      -0.08976062
H        0.00000000       0.00000000       0.95393559       0.00000000       0.00000000       0.02783757       0.00000000       0.00000000       0.08976062
2
Properties=species:S:1:pos:R:3:momenta:R:3:forces:R:3 energy=-0.9986681596707275 pbc="F F F"
H        0.00000000       0.00000000      -0.00707788       0.00000000       0.00000000      -0.03596158       0.00000000       0.00000000      -0.07565246
H        0.00000000       0.00000000       0.95707788       0.00000000       0.00000000       0.03596158       0.00000000       0.00000000       0.07565246
2
Properties=species:S:1:pos:R:3:momenta:R:3:forces:R:3 energy=-0.9991871669915205 pbc="F F F"
H        0.00000000       0.00000000      -0.01094431       0.00000000       0.00000000      -0.04255745       0.00000000       0.00000000      -0.05864612
H        0.00000000       0.00000000       0.96094431       0.00000000       0.00000000       0.04255745       0.00000000       0.00000000       0.05864612
2
Properties=species:S:1:pos:R:3:momenta:R:3:forces:R:3 energy=-0.9996219938551726 pbc="F F F"
H        0.00000000       0.00000000      -0.01537210       0.00000000       0.00000000      -0.04738466       0.00000000       0.00000000      -0.03964077
H        0.00000000       0.00000000       0.96537210       0.00000000       0.00000000       0.04738466       0.00000000       0.00000000       0.03964077
2
Properties=species:S:1:pos:R:3:momenta:R:3:forces:R:3 energy=-0.9999061434696653 pbc="F F F"
H        0.00000000       0.00000000      -0.02017933       0.00000000       0.00000000      -0.05029240       0.00000000       0.00000000      -0.01956363
H        0.00000000       0.00000000       0.97017933       0.00000000       0.00000000       0.05029240       0.00000000       0.00000000       0.01956363
2
Properties=species:S:1:pos:R:3:momenta:R:3:forces:R:3 energy=-0.9999998791781405 pbc="F F F"
H        0.00000000       0.00000000      -0.02517383       0.00000000       0.00000000      -0.05121910       0.00000000       0.00000000       0.00069495
H        0.00000000       0.00000000       0.97517383       0.00000000       0.00000000       0.05121910       0.00000000       0.00000000      -0.00069495
2