2
Properties=species:S:1:pos:R:3:momenta:R:3:forces:R:3 energy=-0.579160712941211 pbc="F F F"
H        0.00000000       0.00000000       0.00000000       0.00000000       0.00000000       0.00000000       0.00000000       0.00000000      -2.13912112
H        0.00000000       0.00000000       0.50000000       0.00000000       0.00000000       0.00000000       0.00000000       0.00000000       2.13912112
2
Properties=species:S:1:pos:R:3:momenta:R:3:forces:R:3 energy=-0.5795985515469388 pbc="F F F"
H        0.00000000       0.00000000      -0.00010238       0.00000000       0.00000000      -0.02100432       0.00000000       0.00000000      -2.13757034
H        0.00000000       0.00000000       0.50010238       0.00000000       0.00000000       0.02100432       0.00000000       0.00000000       2.13757034
2
Properties=species:S:1:pos:R:3:momenta:R:3:forces:R:3 energy=-0.5809095300652419 pbc="F F F"
H        0.00000000       0.00000000      -0.00040936       0.00000000       0.00000000      -0.04197820       0.00000000       0.00000000      -2.13292488
H        0.00000000       0.00000000       0.50040936       0.00000000       0.00000000       0.04197820       0.00000000       0.00000000       2.13292488
2
Properties=species:S:1:pos:R:3:momenta:R:3:forces:R:3 energy=-0.5830860626474467 pbc="F F F"
H        0.00000000       0.00000000      -0.00092051       0.00000000       0.00000000      -0.06289136       0.00000000       0.00000000      -2.12520534
H        0.00000000       0.00000000       0.50092051       0.00000000       0.00000000       0.06289136       0.00000000       0.00000000       2.12520534
2
Properties=species:S:1:pos:R:3:momenta:R:3:forces:R:3 energy=-0.5861155926022816 pbc="F F F"
H        0.00000000       0.00000000      -0.00163508       0.00000000       0.00000000      -0.08371376       0.00000000       0.00000000      -2.11444579
H        0.00000000       0.00000000       0.50163508       0.00000000       0.00000000       0.08371376       0.00000000       0.00000000       2.11444579
2
Properties=species:S:1:pos:R:3:momenta:R:3:forces:R:3 energy=-0.5899807204631443 pbc="F F F"
H        0.00000000       0.00000000      -0.00255205       0.00000000       0.00000000      -0.10441577       0.00000000       0.00000000      -2.10069352
H        0.00000000       0.00000000       0.50255205       0.00000000       0.00000000       0.10441577       0.00000000       0.00000000       2.10069352
2
Properties=species:S:1:pos:R:3:momenta:R:3:forces:R:3 energy=-0.5946593802862749 pbc="F F F"
H        0.00000000       0.00000000      -0.00367009       0.00000000       0.00000000      -0.12496830       0.00000000       0.00000000      -2.08400857
H        0.00000000       0.00000000       0.50367009       0.00000000       0.00000000       0.12496830       0.00000000       0.00000000       2.08400857
2
Properties=species:S:1:pos:R:3:momenta:R:3:forces:R:3 energy=-0.6001250612735093 pbc="F F F"
H        0.00000000       0.00000000      -0.00498761       0.00000000       0.00000000      -0.14534288       0.00000000       0.00000000      -2.06446319
H        0.00000000       0.00000000       0.50498761       0.00000000       0.00000000       0.14534288       0.00000000       0.00000000       2.06446319
2
Properties=species:S:1:pos:R:3:momenta:R:3:forces:R:3 energy=-0.6063470711075042 pbc="F F F"
H        0.00000000       0.00000000      -0.00650275       0.00000000       0.00000000      -0.16551184       0.00000000       0.00000000      -2.04214119
H        0.00000000       0.00000000       0.50650275       0.00000000       0.00000000       0.16551184       0.00000000       0.00000000       2.04214119
2
Properties=species:S:1:pos:R:3:momenta:R:3:forces:R:3 energy=-0.6132908367689982 pbc="F F F"
H        0.00000000       0.00000000      -0.00821335       0.00000000       0.00000000      -0.18544837       0.00000000       0.00000000      -2.01713721
H        0.00000000       0.00000000       0.50821335       0.00000000       0.00000000       0.18544837       0.00000000       0.00000000       2.01713721
2
Properties=species:S:1:pos:R:3:momenta:R:3:forces:R:3 energy=-0.6209182380879966 pbc="F F F"
H        0.00000000       0.00000000      -0.01011704       0.00000000       0.00000000      -0.20512663       0.00000000       0.00000000      -1.98955584
H        0.00000000       0.00000000       0.51011704       0.00000000       0.00000000       0.20512663       0.00000000       0.00000000       1.98955584
2
Properties=species:S:1:pos:R:3:momenta:R:3:forces:R:3 energy=-0.6291879688735191 pbc="F F F"
H        0.00000000       0.00000000      -0.01221116       0.00000000       0.00000000      -0.22452187       0.00000000       0.00000000      -1.95951081
H        0.00000000       0.00000000       0.51221116       0.00000000       0.00000000       0.22452187       0.00000000       0.00000000       1.95951081
2
Properties=species:S:1:pos:R:3:momenta:R:3:forces:R:3 energy=-0.6380559201760598 pbc="F F F"
H        0.00000000       0.00000000      -0.01449285       0.00000000       0.00000000      -0.24361048       0.00000000       0.00000000      -1.92712393
H        0.00000000       0.00000000       0.51449285       0.00000000       0.00000000       0.24361048       0.00000000       0.00000000       1.92712393
2
Properties=species:S:1:pos:R:3:momenta:R:3:forces:R:3 energy=-0.6474755800658148 pbc="F F F"
H        0.00000000       0.00000000      -0.01695900       0.00000000       0.00000000      -0.26237010       0.00000000       0.00000000      -1.89252418
H        0.00000000       0.00000000       0.51695900       0.00000000       0.00000000       0.26237010       0.00000000       0.00000000       1.89252418
2
Properties=species:S:1:pos:R:3:momenta:R:3:forces:R:3 energy=-0.657398444257171 pbc="F F F"
H        0.00000000       0.00000000      -0.01960631       0.00000000       0.00000000      -0.28077965       0.00000000       0.00000000      -1.85584662
H        0.00000000       0.00000000       0.51960631       0.00000000       0.00000000       0.28077965       0.00000000       0.00000000       1.85584662
2
Properties=species:S:1:pos:R:3:momenta:R:3:forces:R:3 energy=-0.6677744319716897 pbc="F F F"
H        0.00000000       0.00000000      -0.02243125       0.00000000       0.00000000      -0.29881942       0.00000000       0.00000000      -1.81723137
H        0.00000000       0.00000000       0.52243125       0.00000000       0.00000000       0.29881942       0.00000000       0.00000000       1.81723137
2
Properties=species:S:1:pos:R:3:momenta:R:3:forces:R:3 energy=-0.6785523016005848 pbc="F F F"
H        0.00000000       0.00000000      -0.02543014       0.00000000       0.00000000      -0.31647106       0.00000000       0.00000000      -1.77682255
H        0.00000000       0.00000000       0.52543014       0.00000000       0.00000000       0.31647106       0.00000000       0.00000000       1.77682255
2
Properties=species:S:1:pos:R:3:momenta:R:3:forces:R:3 energy=-0.6896800609936854 pbc="F F F"
H        0.00000000       0.00000000      -0.02859911       0.00000000       0.00000000      -0.33371770       0.00000000       0.00000000      -1.73476723
H        0.00000000       0.00000000       0.52859911       0.00000000       0.00000000       0.33371770       0.00000000       0.00000000       1.73476723
2
Properties=species:S:1:pos:R:3:momenta:R:3:forces:R:3 energy=-0.7011053675530696 pbc="F F F"
H        0.00000000       0.00000000      -0.03193412       0.00000000       0.00000000      -0.35054389       0.00000000       0.00000000      -1.69121440
H        0.00000000       0.00000000       0.53193412       0.00000000       0.00000000       0.35054389       0.00000000       0.00000000       1.69121440
2
Properties=species:S:1:pos:R:3:momenta:R:3:forces:R:3 energy=-0.7127759137324619 pbc="F F F"
H        0.00000000       0.00000000      -0.03543102       0.00000000       0.00000000      -0.36693565       0.00000000       0.00000000      -1.64631400
H        0.00000000       0.00000000       0.53543102       0.00000000       0.00000000       0.36693565       0.00000000       0.00000000       1.64631400
2
Properties=species:S:1:pos:R:3:momenta:R:3:forces:R:3 energy=-0.7246397940235433 pbc="F F F"
H        0.00000000       0.00000000      -0.03908551       0.00000000       0.00000000      -0.38288048       0.00000000       0.00000000      -1.60021592
H        0.00000000       0.00000000       0.53908551       0.00000000       0.00000000       0.38288048       0.00000000       0.00000000       1.60021592
2
Properties=species:S:1:pos:R:3:momenta:R:3:forces:R:3 energy=-0.7366458500324878 pbc="F F F"
H        0.00000000       0.00000000      -0.04289316       0.00000000       0.00000000      -0.39836736       0.00000000       0.00000000      -1.55306915
H        0.00000000       0.00000000       0.54289316       0.00000000       0.00000000       0.39836736       0.00000000       0.00000000       1.55306915
2
Properties=species:S:1:pos:R:3:momenta:R:3:forces:R:3 energy=-0.7487439907993569 pbc="F F F"
H        0.00000000       0.00000000      -0.04684948       0.00000000       0.00000000      -0.41338671       0.00000000       0.00000000      -1.50502089
H        0.00000000       0.00000000       0.54684948       0.00000000       0.00000000       0.41338671       0.00000000       0.00000000       1.50502089
2
Properties=species:S:1:pos:R:3:momenta:R:3:forces:R:3 energy=-0.760885486074997 pbc="F F F"
H        0.00000000       0.00000000      -0.05094985       0.00000000       0.00000000      -0.42793037       0.00000000       0.00000000      -1.45621576
H        0.00000000       0.00000000       0.55094985       0.00000000       0.00000000       0.42793037       0.00000000       0.00000000       1.45621576
2
Properties=species:S:1:pos:R:3:momenta:R:3:forces:R:3 energy=-0.7730232308312164 pbc="F F F"
H        0.00000000       0.00000000      -0.05518961       0.00000000       0.00000000      -0.44199161       0.00000000       0.00000000      -1.40679512
H        0.00000000       0.00000000       0.55518961       0.00000000       0.00000000       0.44199161       0.00000000       0.00000000       1.40679512
2
Properties=species:S:1:pos:R:3:momenta:R:3:forces:R:3 energy=-0.785111979828041 pbc="F F F"
H        0.00000000       0.00000000      -0.05956403       0.00000000       0.00000000      -0.45556506       0.00000000       0.00000000      -1.35689636
H        0.00000000       0.00000000       0.55956403       0.00000000       0.00000000       0.45556506       0.00000000       0.00000000       1.35689636
2
Properties=species:S:1:pos:R:3:momenta:R:3:forces:R:3 energy=-0.797108551585903 pbc="F F F"
H        0.00000000       0.00000000      -0.06406834       0.00000000       0.00000000      -0.46864667       0.00000000       0.00000000      -1.30665236
H        0.00000000       0.00000000       0.56406834       0.00000000       0.00000000       0.46864667       0.00000000       0.00000000       1.30665236
2
Properties=species:S:1:pos:R:3:momenta:R:3:forces:R:3 energy=-0.808972001601654 pbc="F F F"
H        0.00000000       0.00000000      -0.06869771       0.00000000       0.00000000      -0.48123368       0.00000000       0.00000000      -1.25619099
H        0.00000000       0.00000000       0.56869771       0.00000000       0.00000000       0.48123368       0.00000000       0.00000000       1.25619099
2
Properties=species:S:1:pos:R:3:momenta:R:3:forces:R:3 energy=-0.8206637650979312 pbc="F F F"
H        0.00000000       0.00000000      -0.07344733       0.00000000       0.00000000      -0.49332457       0.00000000       0.00000000      -1.20563465
H        0.00000000       0.00000000       0.57344733       0.00000000       0.00000000       0.49332457       0.00000000       0.00000000       1.20563465
2
Properties=species:S:1:pos:R:3:momenta:R:3:forces:R:3 energy=-0.8321477700000857 pbc="F F F"
H        0.00000000       0.00000000      -0.07831235       0.00000000       0.00000000      -0.50491895       0.00000000       0.00000000      -1.15509992
H        0.00000000       0.00000000       0.57831235       0.00000000       0.00000000       0.50491895       0.00000000       0.00000000       1.15509992
2
Properties=species:S:1:pos:R:3:momenta:R:3:forces:R:3 energy=-0.843390521189817 pbc="F F F"
H        0.00000000       0.00000000      -0.08328793       0.00000000       0.00000000      -0.51601760       0.00000000       0.00000000      -1.10469727
H        0.00000000       0.00000000       0.58328793       0.00000000       0.00000000       0.51601760       0.00000000       0.00000000       1.10469727
2
Properties=species:S:1:pos:R:3:momenta:R:3:forces:R:3 energy=-0.8543611573876567 pbc="F F F"
H        0.00000000       0.00000000      -0.08836926       0.00000000       0.00000000      -0.52662232       0.00000000       0.00000000      -1.05453083
H        0.00000000       0.00000000       0.58836926       0.00000000       0.00000000       0.52662232       0.00000000       0.00000000       1.05453083
2
Properties=species:S:1:pos:R:3:momenta:R:3:forces:R:3 energy=-0.8650314822668793 pbc="F F F"
H        0.00000000       0.00000000      -0.09355152       0.00000000       0.00000000      -0.53673591       0.00000000       0.00000000      -1.00469827
H        0.00000000       0.00000000       0.59355152       0.00000000       0.00000000       0.53673591       0.00000000       0.00000000       1.00469827
2
Properties=species:S:1:pos:R:3:momenta:R:3:forces:R:3 energy=-0.8753759715999734 pbc="F F F"
H        0.00000000       0.00000000      -0.09882996       0.00000000       0.00000000      -0.54636210       0.00000000       0.00000000      -0.95529063
H        0.00000000       0.00000000       0.59882996       0.00000000       0.00000000       0.54636210       0.00000000       0.00000000       0.95529063
2
Properties=species:S:1:pos:R:3:momenta:R:3:forces:R:3 energy=-0.8853717583873157 pbc="F F F"
H        0.00000000       0.00000000      -0.10419983       0.00000000       0.00000000      -0.55550547       0.00000000       0.00000000      -0.90639234
H        0.00000000       0.00000000       0.60419983       0.00000000       0.00000000       0.55550547       0.00000000       0.00000000       0.90639234
2
Properties=species:S:1:pos:R:3:momenta:R:3:forces:R:3 energy=-0.8949985980189593 pbc="F F F"
H        0.00000000       0.00000000      -0.10965647       0.00000000       0.00000000      -0.56417141       0.00000000       0.00000000      -0.85808120
H        0.00000000       0.00000000       0.60965647       0.00000000       0.00000000       0.56417141       0.00000000       0.00000000       0.85808120
2
Properties=species:S:1:pos:R:3:momenta:R:3:forces:R:3 energy=-0.9042388155780136 pbc="F F F"
H        0.00000000       0.00000000      -0.11519524       0.00000000       0.00000000      -0.57236604       0.00000000       0.00000000      -0.81042845
H        0.00000000       0.00000000       0.61519524       0.00000000       0.00000000       0.57236604       0.00000000       0.00000000       0.81042845
2
Properties=species:S:1:pos:R:3:momenta:R:3:forces:R:3 energy=-0.9130772374120198 pbc="F F F"
H        0.00000000       0.00000000      -0.12081158       0.00000000       0.00000000      -0.58009615       0.00000000       0.00000000      -0.76349886
H        0.00000000       0.00000000       0.62081158       0.00000000       0.00000000       0.58009615       0.00000000       0.00000000       0.76349886
2
Properties=species:S:1:pos:R:3:momenta:R:3:forces:R:3 energy=-0.9215011090815056 pbc="F F F"
H        0.00000000       0.00000000      -0.12650101       0.00000000       0.00000000      -0.58736911       0.00000000       0.00000000      -0.71735085
H        0.00000000       0.00000000       0.62650101       0.00000000       0.00000000       0.58736911       0.00000000       0.00000000       0.71735085
2
Properties=species:S:1:pos:R:3:momenta:R:3:forces:R:3 energy=-0.9295000017471368 pbc="F F F"
H        0.00000000       0.00000000      -0.13225910       0.00000000       0.00000000      -0.59419288       0.00000000       0.00000000      -0.67203671
H        0.00000000       0.00000000       0.63225910       0.00000000       0.00000000       0.59419288       0.00000000       0.00000000       0.67203671
2
Properties=species:S:1:pos:R:3:momenta:R:3:forces:R:3 energy=-0.9370657089833057 pbc="F F F"
H        0.00000000       0.00000000      -0.13808151       0.00000000       0.00000000      -0.60057586       0.00000000       0.00000000      -0.62760274
H        0.00000000       0.00000000       0.63808151       0.00000000       0.00000000       0.60057586       0.00000000       0.00000000       0.62760274
2
Properties=species:S:1:pos:R:3:momenta:R:3:forces:R:3 energy=-0.9441921359111933 pbc="F F F"
H        0.00000000       0.00000000      -0.14396400       0.00000000       0.00000000      -0.60652690       0.00000000       0.00000000      -0.58408949
H        0.00000000       0.00000000       0.64396400       0.00000000       0.00000000       0.60652690       0.00000000       0.00000000       0.58408949
2
Properties=species:S:1:pos:R:3:momenta:R:3:forces:R:3 energy=-0.9508751824327525 pbc="F F F"
H        0.00000000       0.00000000      -0.14990240       0.00000000       0.00000000      -0.61205522       0.00000000       0.00000000      -0.54153202
H        0.00000000       0.00000000       0.64990240       0.00000000       0.00000000       0.61205522       0.00000000       0.00000000       0.54153202
2
Properties=species:S:1:pos:R:3:momenta:R:3:forces:R:3 energy=-0.957112622222854 pbc="F F F"
H        0.00000000       0.00000000      -0.15589264       0.00000000       0.00000000      -0.61717035       0.00000000       0.00000000      -0.49996011
H        0.00000000       0.00000000       0.65589264       0.00000000       0.00000000       0.61717035       0.00000000       0.00000000       0.49996011
2
Properties=species:S:1:pos:R:3:momenta:R:3:forces:R:3 energy=-0.9629039790038347 pbc="F F F"
H        0.00000000       0.00000000      -0.16193073       0.00000000       0.00000000      -0.62188209       0.00000000       0.00000000      -0.45939859
H        0.00000000       0.00000000       0.66193073       0.00000000       0.00000000       0.62188209       0.00000000       0.00000000       0.45939859
2
Properties=species:S:1:pos:R:3:momenta:R:3:forces:R:3 energy=-0.9682504014883588 pbc="F F F"
H        0.00000000       0.00000000      -0.16801279       0.00000000       0.00000000      -0.62620047       0.00000000       0.00000000      -0.41986754
H        0.00000000       0.00000000       0.66801279       0.00000000       0.00000000       0.62620047       0.00000000       0.00000000       0.41986754
2
Properties=species:S:1:pos:R:3:momenta:R:3:forces:R:3 energy=-0.9731545382359192 pbc="F F F"
H        0.00000000       0.00000000      -0.17413505       0.00000000       0.00000000      -0.63013569       0.00000000       0.00000000      -0.38138262
H        0.00000000       0.00000000       0.67413505       0.00000000       0.00000000       0.63013569       0.00000000       0.00000000       0.38138262
2
Properties=species:S:1:pos:R:3:momenta:R:3:forces:R:3 energy=-0.9776204135281176 pbc="F F F"
H        0.00000000       0.00000000      -0.18029381       0.00000000       0.00000000      -0.63369808       0.00000000       0.00000000      -0.34395534
H        0.00000000       0.00000000       0.68029381       0.00000000       0.00000000       0.63369808       0.00000000       0.00000000       0.34395534
2
Properties=species:S:1:pos:R:3:momenta:R:3:forces:R:3 energy=-0.9816533052303376 pbc="F F F"
H        0.00000000       0.00000000      -0.18648549       0.00000000       0.00000000      -0.63689806       0.00000000       0.00000000      -0.30759333
H        0.00000000       0.00000000       0.68648549       0.00000000       0.00000000       0.63689806       0.00000000       0.00000000       0.30759333
2
Properties=species:S:1:pos:R:3:momenta:R:3:forces:R:3 energy=-0.9852596254744292 pbc="F F F"
H        0.00000000       0.00000000      -0.19270661       0.00000000       0.00000000      -0.63974612       0.00000000       0.00000000      -0.27230064
H        0.00000000       0.00000000       0.69270661       0.00000000       0.00000000       0.63974612       0.00000000       0.00000000       0.27230064
2
Properties=species:S:1:pos:R:3:momenta:R:3:forces:R:3 energy=-0.9884468048700538 pbc="F F F"
H        0.00000000       0.00000000      -0.19895380       0.00000000       0.00000000      -0.64225277       0.00000000       0.00000000      -0.23807797
H        0.00000000       0.00000000       0.69895380       0.00000000       0.00000000       0.64225277       0.00000000       0.00000000       0.23807797
2
Properties=species:S:1:pos:R:3:momenta:R:3:forces:R:3 energy=-0.9912231808325518 pbc="F F F"
H        0.00000000       0.00000000      -0.20522378       0.00000000       0.00000000      -0.64442850       0.00000000       0.00000000      -0.20492300
H        0.00000000       0.00000000       0.70522378       0.00000000       0.00000000       0.64442850       0.00000000       0.00000000       0.20492300
2
Properties=species:S:1:pos:R:3:momenta:R:3:forces:R:3 energy=-0.993597890503456 pbc="F F F"
H        0.00000000       0.00000000      -0.21151338       0.00000000       0.00000000      -0.64628378       0.00000000       0.00000000      -0.17283059
H        0.00000000       0.00000000       0.71151338       0.00000000       0.00000000       0.64628378       0.00000000       0.00000000       0.17283059
2
Properties=species:S:1:pos:R:3:momenta:R:3:forces:R:3 energy=-0.9955807686366086 pbc="F F F"
H        0.00000000       0.00000000      -0.21781951       0.00000000       0.00000000      -0.64782900       0.00000000       0.00000000      -0.14179306
H        0.00000000       0.00000000       0.71781951       0.00000000       0.00000000       0.64782900       0.00000000       0.00000000       0.14179306
2
Properties=species:S:1:pos:R:3:momenta:R:3:forces:R:3 energy=-0.9971822507286292 pbc="F F F"
H        0.00000000       0.00000000      -0.22413922       0.00000000       0.00000000      -0.64907449       0.00000000       0.00000000      -0.11180045
H        0.00000000       0.00000000       0.72413922       0.00000000       0.00000000       0.64907449       0.00000000       0.00000000       0.11180045
2
Properties=species:S:1:pos:R:3:momenta:R:3:forces:R:3 energy=-0.9984132815872905 pbc="F F F"
H        0.00000000       0.00000000      -0.23046963       0.00000000       0.00000000      -0.65003044       0.00000000       0.00000000      -0.08284071
H        0.00000000       0.00000000       0.73046963       0.00000000       0.00000000       0.65003044       0.00000000       0.00000000       0.08284071
2
Properties=species:S:1:pos:R:3:momenta:R:3:forces:R:3 energy=-0.999285229455157 pbc="F F F"
H        0.00000000       0.00000000      -0.23680797       0.00000000       0.00000000      -0.65070693       0.00000000       0.00000000      -0.05489993
H        0.00000000       0.00000000       0.73680797       0.00000000       0.00000000       0.65070693       0.00000000       0.00000000       0.05489993
2
Properties=species:S:1:pos:R:3:momenta:R:3:forces:R:3 energy=-0.9998098057384098 pbc="F F F"
H        0.00000000       0.00000000      -0.24315157       0.00000000       0.00000000      -0.65111390       0.00000000       0.00000000      -0.02796258
H        0.00000000       0.00000000       0.74315157       0.00000000       0.00000000       0.65111390       0.00000000       0.00000000       0.02796258
2
Properties=species:S:1:pos:R:3:momenta:R:3:forces:R:3 energy=-0.9999989903318007 pbc="F F F"
H        0.00000000       0.00000000      -0.24949784       0.00000000       0.00000000      -0.65126111       0.00000000       0.00000000      -0.00201166
H        0.00000000       0.00000000       0.74949784       0.00000000       0.00000000       0.65126111       0.00000000       0.00000000       0.00201166
2
Properties=species:S:1:pos:R:3:momenta:R:3:forces:R:3 energy=-0.9998649624797282 pbc="F F F"
H        0.00000000       0.00000000      -0.25584431       0.00000000       0.00000000      -0.65115817       0.00000000       0.00000000       0.02297105
H        0.00000000       0.00000000       0.75584431       0.00000000       0.00000000       0.65115817       0.00000000       0.00000000      -0.02297105
2
Properties=species:S:1:pos:R:3:momenta:R:3:forces:R:3 energy=-0.9994200370700379 pbc="F F F"
H        0.00000000       0.00000000      -0.26218857       0.00000000       0.00000000      -0.65081450       0.00000000       0.00000000       0.04700491
H        0.00000000       0.00000000       0.76218857       0.00000000       0.00000000       0.65081450       0.00000000       0.00000000      -0.04700491
2
Properties=species:S:1:pos:R:3:momenta:R:3:forces:R:3 energy=-0.9986766062207875 pbc="F F F"
H        0.00000000       0.00000000      -0.26852834       0.00000000       0.00000000      -0.65023931       0.00000000       0.00000000       0.07011017
H        0.00000000       0.00000000       0.76852834       0.00000000       0.00000000       0.65023931       0.00000000       0.00000000      -0.07011017
2
Properties=species:S:1:pos:R:3:momenta:R:3:forces:R:3 energy=-0.9976470859903223 pbc="F F F"
H        0.00000000       0.00000000      -0.27486139       0.00000000       0.00000000      -0.64944161       0.00000000       0.00000000       0.09230786
H        0.00000000       0.00000000       0.77486139       0.00000000       0.00000000       0.64944161       0.00000000       0.00000000      -0.09230786
2
Properties=species:S:1:pos:R:3:momenta:R:3:forces:R:3 energy=-0.9963438680170245 pbc="F F F"
H        0.00000000       0.00000000      -0.28118561       0.00000000       0.00000000      -0.64843023       0.00000000       0.00000000       0.11361965
H        0.00000000       0.00000000       0.78118561       0.00000000       0.00000000       0.64843023       0.00000000       0.00000000      -0.11361965
2
Properties=species:S:1:pos:R:3:momenta:R:3:forces:R:3 energy=-0.9947792758764584 pbc="F F F"
H        0.00000000       0.00000000      -0.28749896       0.00000000       0.00000000      -0.64721375       0.00000000       0.00000000       0.13406771
H        0.00000000       0.00000000       0.78749896       0.00000000       0.00000000       0.64721375       0.00000000       0.00000000      -0.13406771
2
Properties=species:S:1:pos:R:3:momenta:R:3:forces:R:3 energy=-0.9929655259297628 pbc="F F F"
H        0.00000000       0.00000000      -0.29379947       0.00000000       0.00000000      -0.64580055       0.00000000       0.00000000       0.15367460
H        0.00000000       0.00000000       0.79379947       0.00000000       0.00000000       0.64580055       0.00000000       0.00000000      -0.15367460
2
Properties=species:S:1:pos:R:3:momenta:R:3:forces:R:3 energy=-0.9909146924275208 pbc="F F F"
H        0.00000000       0.00000000      -0.30008527       0.00000000       0.00000000      -0.64419878       0.00000000       0.00000000       0.17246314
H        0.00000000       0.00000000       0.80008527       0.00000000       0.00000000       0.64419878       0.00000000       0.00000000      -0.17246314
2
Properties=species:S:1:pos:R:3:momenta:R:3:forces:R:3 energy=-0.9886386766274414 pbc="F F F"
H        0.00000000       0.00000000      -0.30635456       0.00000000       0.00000000      -0.64241635       0.00000000       0.00000000       0.19045637
H        0.00000000       0.00000000       0.80635456       0.00000000       0.00000000       0.64241635       0.00000000       0.00000000      -0.19045637
2
Properties=species:S:1:pos:R:3:momenta:R:3:forces:R:3 energy=-0.9861491796815274 pbc="F F F"
H        0.00000000       0.00000000      -0.31260563       0.00000000       0.00000000      -0.64046098       0.00000000       0.00000000       0.20767738
H        0.00000000       0.00000000       0.81260563       0.00000000       0.00000000       0.64046098       0.00000000       0.00000000      -0.20767738
2
Properties=species:S:1:pos:R:3:momenta:R:3:forces:R:3 energy=-0.9834576790485342 pbc="F F F"
H        0.00000000       0.00000000      -0.31883681       0.00000000       0.00000000      -0.63834013       0.00000000       0.00000000       0.22414927
H        0.00000000       0.00000000       0.81883681       0.00000000       0.00000000       0.63834013       0.00000000       0.00000000      -0.22414927
2
Properties=species:S:1:pos:R:3:momenta:R:3:forces:R:3 energy=-0.9805754081900225 pbc="F F F"
H        0.00000000       0.00000000      -0.32504654       0.00000000       0.00000000      -0.63606104       0.00000000       0.00000000       0.23989508
H        0.00000000       0.00000000       0.82504654       0.00000000       0.00000000       0.63606104       0.00000000       0.00000000      -0.23989508
2
Properties=species:S:1:pos:R:3:momenta:R:3:forces:R:3 energy=-0.9775133393127815 pbc="F F F"
H        0.00000000       0.00000000      -0.33123331       0.00000000       0.00000000      -0.63363075       0.00000000       0.00000000       0.25493774
H        0.00000000       0.00000000       0.83123331       0.00000000       0.00000000       0.63363075       0.00000000       0.00000000      -0.25493774
2
Properties=species:S:1:pos:R:3:momenta:R:3:forces:R:3 energy=-0.9742821689265151 pbc="F F F"
H        0.00000000       0.00000000      -0.33739567       0.00000000       0.00000000      -0.63105604       0.00000000       0.00000000       0.26929994
H        0.00000000       0.00000000       0.83739567       0.00000000       0.00000000       0.63105604       0.00000000       0.00000000      -0.26929994
2